MODEL 1
REMARK VINA RESULT:     0.000      0.000      0.000
REMARK INTER + INTRA:          -0.519
REMARK INTER:                   0.000
REMARK INTRA:                  -0.519
REMARK UNBOUND:                -0.519
REMARK  Name = 322968
REMARK  4 active torsions:
REMARK  status: ('A' for Active; 'I' for Inactive)
REMARK    1  A    between atoms: O_2  and  C_12
REMARK    2  A    between atoms: O_3  and  C_13
REMARK    3  A    between atoms: C_5  and  C_12
REMARK    4  A    between atoms: C_5  and  C_13
REMARK                            x       y       z     vdW  Elec       q    Type
REMARK                         _______ _______ _______ _____ _____    ______ ____
ROOT
ATOM      1  O   UNL     1      13.909  14.874  11.994  0.00  0.00    +0.000 OA
ATOM      2  N   UNL     1      11.997  12.169  13.438  0.00  0.00    +0.000 NA
ATOM      3  C   UNL     1      13.104  12.640  12.541  0.00  0.00    +0.000 C 
ATOM      4  C   UNL     1      12.058  14.763  13.534  0.00  0.00    +0.000 C 
ATOM      5  C   UNL     1      12.325  14.156  14.915  0.00  0.00    +0.000 C 
ATOM      6  C   UNL     1      10.716  14.264  12.988  0.00  0.00    +0.000 C 
ATOM      7  C   UNL     1      12.211  12.623  14.836  0.00  0.00    +0.000 C 
ATOM      8  C   UNL     1      10.688  12.726  13.012  0.00  0.00    +0.000 C 
ATOM      9  C   UNL     1      13.115  14.175  12.618  0.00  0.00    +0.000 C 
ENDROOT
BRANCH   3  10
ATOM     10  C   UNL     1      12.876  12.207  11.082  0.00  0.00    +0.000 C 
BRANCH  10  11
ATOM     11  O   UNL     1      13.075  10.811  11.004  0.00  0.00    +0.000 OA
ATOM     12  H   UNL     1      13.741  10.645  10.316  0.00  0.00    +0.000 HD
ENDBRANCH  10  11
ENDBRANCH   3  10
BRANCH   3  13
ATOM     13  C   UNL     1      14.472  12.098  12.992  0.00  0.00    +0.000 C 
BRANCH  13  14
ATOM     14  O   UNL     1      15.402  12.346  11.959  0.00  0.00    +0.000 OA
ATOM     15  H   UNL     1      16.116  12.895  12.327  0.00  0.00    +0.000 HD
ENDBRANCH  13  14
ENDBRANCH   3  13
TORSDOF 4
ENDMDL
MODEL 2
REMARK VINA RESULT:     0.000      6.983      8.267
REMARK INTER + INTRA:          -0.519
REMARK INTER:                   0.000
REMARK INTRA:                  -0.519
REMARK UNBOUND:                -0.519
REMARK  Name = 322968
REMARK  4 active torsions:
REMARK  status: ('A' for Active; 'I' for Inactive)
REMARK    1  A    between atoms: O_2  and  C_12
REMARK    2  A    between atoms: O_3  and  C_13
REMARK    3  A    between atoms: C_5  and  C_12
REMARK    4  A    between atoms: C_5  and  C_13
REMARK                            x       y       z     vdW  Elec       q    Type
REMARK                         _______ _______ _______ _____ _____    ______ ____
ROOT
ATOM      1  O   UNL     1      17.633  13.259  19.822  0.00  0.00    +0.000 OA
ATOM      2  N   UNL     1      14.223  14.451  19.735  0.00  0.00    +0.000 NA
ATOM      3  C   UNL     1      15.466  14.134  20.513  0.00  0.00    +0.000 C 
ATOM      4  C   UNL     1      16.004  13.560  18.070  0.00  0.00    +0.000 C 
ATOM      5  C   UNL     1      15.598  14.995  17.724  0.00  0.00    +0.000 C 
ATOM      6  C   UNL     1      14.770  12.652  18.093  0.00  0.00    +0.000 C 
ATOM      7  C   UNL     1      14.492  15.465  18.685  0.00  0.00    +0.000 C 
ATOM      8  C   UNL     1      13.709  13.247  19.034  0.00  0.00    +0.000 C 
ATOM      9  C   UNL     1      16.500  13.610  19.504  0.00  0.00    +0.000 C 
ENDROOT
BRANCH   3  10
ATOM     10  C   UNL     1      15.209  13.057  21.582  0.00  0.00    +0.000 C 
BRANCH  10  11
ATOM     11  O   UNL     1      14.421  13.633  22.602  0.00  0.00    +0.000 OA
ATOM     12  H   UNL     1      14.806  13.372  23.456  0.00  0.00    +0.000 HD
ENDBRANCH  10  11
ENDBRANCH   3  10
BRANCH   3  13
ATOM     13  C   UNL     1      16.030  15.381  21.218  0.00  0.00    +0.000 C 
BRANCH  13  14
ATOM     14  O   UNL     1      17.013  14.956  22.137  0.00  0.00    +0.000 OA
ATOM     15  H   UNL     1      17.805  14.705  21.631  0.00  0.00    +0.000 HD
ENDBRANCH  13  14
ENDBRANCH   3  13
TORSDOF 4
ENDMDL
MODEL 3
REMARK VINA RESULT:     0.000      8.206      9.518
REMARK INTER + INTRA:          -0.519
REMARK INTER:                   0.000
REMARK INTRA:                  -0.519
REMARK UNBOUND:                -0.519
REMARK  Name = 322968
REMARK  4 active torsions:
REMARK  status: ('A' for Active; 'I' for Inactive)
REMARK    1  A    between atoms: O_2  and  C_12
REMARK    2  A    between atoms: O_3  and  C_13
REMARK    3  A    between atoms: C_5  and  C_12
REMARK    4  A    between atoms: C_5  and  C_13
REMARK                            x       y       z     vdW  Elec       q    Type
REMARK                         _______ _______ _______ _____ _____    ______ ____
ROOT
ATOM      1  O   UNL     1      16.783  14.718  20.292  0.00  0.00    +0.000 OA
ATOM      2  N   UNL     1      13.673  15.441  21.985  0.00  0.00    +0.000 NA
ATOM      3  C   UNL     1      15.115  15.030  22.042  0.00  0.00    +0.000 C 
ATOM      4  C   UNL     1      14.591  15.402  19.557  0.00  0.00    +0.000 C 
ATOM      5  C   UNL     1      14.124  16.809  19.945  0.00  0.00    +0.000 C 
ATOM      6  C   UNL     1      13.446  14.400  19.728  0.00  0.00    +0.000 C 
ATOM      7  C   UNL     1      13.522  16.780  21.361  0.00  0.00    +0.000 C 
ATOM      8  C   UNL     1      12.880  14.500  21.155  0.00  0.00    +0.000 C 
ATOM      9  C   UNL     1      15.630  15.016  20.593  0.00  0.00    +0.000 C 
ENDROOT
BRANCH   3  10
ATOM     10  C   UNL     1      15.283  13.628  22.654  0.00  0.00    +0.000 C 
BRANCH  10  11
ATOM     11  O   UNL     1      14.999  13.718  24.034  0.00  0.00    +0.000 OA
ATOM     12  H   UNL     1      14.248  13.129  24.219  0.00  0.00    +0.000 HD
ENDBRANCH  10  11
ENDBRANCH   3  10
BRANCH   3  13
ATOM     13  C   UNL     1      15.957  16.017  22.871  0.00  0.00    +0.000 C 
BRANCH  13  14
ATOM     14  O   UNL     1      17.216  15.425  23.109  0.00  0.00    +0.000 OA
ATOM     15  H   UNL     1      17.723  15.462  22.280  0.00  0.00    +0.000 HD
ENDBRANCH  13  14
ENDBRANCH   3  13
TORSDOF 4
ENDMDL
MODEL 4
REMARK VINA RESULT:     0.000      5.542      6.583
REMARK INTER + INTRA:          -0.519
REMARK INTER:                   0.000
REMARK INTRA:                  -0.519
REMARK UNBOUND:                -0.519
REMARK  Name = 322968
REMARK  4 active torsions:
REMARK  status: ('A' for Active; 'I' for Inactive)
REMARK    1  A    between atoms: O_2  and  C_12
REMARK    2  A    between atoms: O_3  and  C_13
REMARK    3  A    between atoms: C_5  and  C_12
REMARK    4  A    between atoms: C_5  and  C_13
REMARK                            x       y       z     vdW  Elec       q    Type
REMARK                         _______ _______ _______ _____ _____    ______ ____
ROOT
ATOM      1  O   UNL     1      18.272  15.421  12.531  0.00  0.00    +0.000 OA
ATOM      2  N   UNL     1      16.656  18.001  14.477  0.00  0.00    +0.000 NA
ATOM      3  C   UNL     1      16.667  16.603  13.933  0.00  0.00    +0.000 C 
ATOM      4  C   UNL     1      18.824  17.702  13.081  0.00  0.00    +0.000 C 
ATOM      5  C   UNL     1      19.152  18.015  14.544  0.00  0.00    +0.000 C 
ATOM      6  C   UNL     1      17.938  18.803  12.491  0.00  0.00    +0.000 C 
ATOM      7  C   UNL     1      17.848  18.256  15.325  0.00  0.00    +0.000 C 
ATOM      8  C   UNL     1      16.699  19.002  13.381  0.00  0.00    +0.000 C 
ATOM      9  C   UNL     1      17.959  16.455  13.114  0.00  0.00    +0.000 C 
ENDROOT
BRANCH   3  10
ATOM     10  C   UNL     1      15.455  16.336  13.023  0.00  0.00    +0.000 C 
BRANCH  10  11
ATOM     11  O   UNL     1      14.303  16.274  13.837  0.00  0.00    +0.000 OA
ATOM     12  H   UNL     1      13.579  15.915  13.296  0.00  0.00    +0.000 HD
ENDBRANCH  10  11
ENDBRANCH   3  10
BRANCH   3  13
ATOM     13  C   UNL     1      16.658  15.553  15.060  0.00  0.00    +0.000 C 
BRANCH  13  14
ATOM     14  O   UNL     1      16.389  14.294  14.482  0.00  0.00    +0.000 OA
ATOM     15  H   UNL     1      16.170  14.437  13.545  0.00  0.00    +0.000 HD
ENDBRANCH  13  14
ENDBRANCH   3  13
TORSDOF 4
ENDMDL
MODEL 5
REMARK VINA RESULT:     0.000      9.520     10.685
REMARK INTER + INTRA:          -0.519
REMARK INTER:                   0.000
REMARK INTRA:                  -0.519
REMARK UNBOUND:                -0.519
REMARK  Name = 322968
REMARK  4 active torsions:
REMARK  status: ('A' for Active; 'I' for Inactive)
REMARK    1  A    between atoms: O_2  and  C_12
REMARK    2  A    between atoms: O_3  and  C_13
REMARK    3  A    between atoms: C_5  and  C_12
REMARK    4  A    between atoms: C_5  and  C_13
REMARK                            x       y       z     vdW  Elec       q    Type
REMARK                         _______ _______ _______ _____ _____    ______ ____
ROOT
ATOM      1  O   UNL     1      18.324  18.924  10.496  0.00  0.00    +0.000 OA
ATOM      2  N   UNL     1      19.387  20.887   7.655  0.00  0.00    +0.000 NA
ATOM      3  C   UNL     1      19.027  19.558   8.250  0.00  0.00    +0.000 C 
ATOM      4  C   UNL     1      18.767  21.268  10.147  0.00  0.00    +0.000 C 
ATOM      5  C   UNL     1      17.817  22.035   9.221  0.00  0.00    +0.000 C 
ATOM      6  C   UNL     1      20.218  21.677   9.872  0.00  0.00    +0.000 C 
ATOM      7  C   UNL     1      18.257  21.845   7.759  0.00  0.00    +0.000 C 
ATOM      8  C   UNL     1      20.528  21.506   8.375  0.00  0.00    +0.000 C 
ATOM      9  C   UNL     1      18.665  19.814   9.722  0.00  0.00    +0.000 C 
ENDROOT
BRANCH   3  10
ATOM     10  C   UNL     1      20.202  18.567   8.181  0.00  0.00    +0.000 C 
BRANCH  10  11
ATOM     11  O   UNL     1      20.378  18.192   6.831  0.00  0.00    +0.000 OA
ATOM     12  H   UNL     1      20.774  18.947   6.364  0.00  0.00    +0.000 HD
ENDBRANCH  10  11
ENDBRANCH   3  10
BRANCH   3  13
ATOM     13  C   UNL     1      17.822  18.921   7.535  0.00  0.00    +0.000 C 
BRANCH  13  14
ATOM     14  O   UNL     1      17.724  17.577   7.956  0.00  0.00    +0.000 OA
ATOM     15  H   UNL     1      16.781  17.341   7.981  0.00  0.00    +0.000 HD
ENDBRANCH  13  14
ENDBRANCH   3  13
TORSDOF 4
ENDMDL
MODEL 6
REMARK VINA RESULT:     0.000      2.473      3.695
REMARK INTER + INTRA:          -0.519
REMARK INTER:                   0.000
REMARK INTRA:                  -0.519
REMARK UNBOUND:                -0.519
REMARK  Name = 322968
REMARK  4 active torsions:
REMARK  status: ('A' for Active; 'I' for Inactive)
REMARK    1  A    between atoms: O_2  and  C_12
REMARK    2  A    between atoms: O_3  and  C_13
REMARK    3  A    between atoms: C_5  and  C_12
REMARK    4  A    between atoms: C_5  and  C_13
REMARK                            x       y       z     vdW  Elec       q    Type
REMARK                         _______ _______ _______ _____ _____    ______ ____
ROOT
ATOM      1  O   UNL     1      16.536  11.343  13.409  0.00  0.00    +0.000 OA
ATOM      2  N   UNL     1      13.394  12.136  11.810  0.00  0.00    +0.000 NA
ATOM      3  C   UNL     1      14.156  11.429  12.892  0.00  0.00    +0.000 C 
ATOM      4  C   UNL     1      15.914  12.680  11.502  0.00  0.00    +0.000 C 
ATOM      5  C   UNL     1      15.105  13.954  11.768  0.00  0.00    +0.000 C 
ATOM      6  C   UNL     1      15.356  11.946  10.279  0.00  0.00    +0.000 C 
ATOM      7  C   UNL     1      13.611  13.604  11.874  0.00  0.00    +0.000 C 
ATOM      8  C   UNL     1      13.849  11.704  10.465  0.00  0.00    +0.000 C 
ATOM      9  C   UNL     1      15.641  11.769  12.685  0.00  0.00    +0.000 C 
ENDROOT
BRANCH   3  10
ATOM     10  C   UNL     1      13.969   9.903  12.816  0.00  0.00    +0.000 C 
BRANCH  10  11
ATOM     11  O   UNL     1      12.647   9.605  13.211  0.00  0.00    +0.000 OA
ATOM     12  H   UNL     1      12.511   8.650  13.089  0.00  0.00    +0.000 HD
ENDBRANCH  10  11
ENDBRANCH   3  10
BRANCH   3  13
ATOM     13  C   UNL     1      13.720  11.894  14.294  0.00  0.00    +0.000 C 
BRANCH  13  14
ATOM     14  O   UNL     1      14.266  11.001  15.240  0.00  0.00    +0.000 OA
ATOM     15  H   UNL     1      14.914  10.439  14.780  0.00  0.00    +0.000 HD
ENDBRANCH  13  14
ENDBRANCH   3  13
TORSDOF 4
ENDMDL
MODEL 7
REMARK VINA RESULT:     0.000      3.702      4.760
REMARK INTER + INTRA:          -0.519
REMARK INTER:                   0.000
REMARK INTRA:                  -0.519
REMARK UNBOUND:                -0.519
REMARK  Name = 322968
REMARK  4 active torsions:
REMARK  status: ('A' for Active; 'I' for Inactive)
REMARK    1  A    between atoms: O_2  and  C_12
REMARK    2  A    between atoms: O_3  and  C_13
REMARK    3  A    between atoms: C_5  and  C_12
REMARK    4  A    between atoms: C_5  and  C_13
REMARK                            x       y       z     vdW  Elec       q    Type
REMARK                         _______ _______ _______ _____ _____    ______ ____
ROOT
ATOM      1  O   UNL     1      16.802  11.942  14.042  0.00  0.00    +0.000 OA
ATOM      2  N   UNL     1      15.048  14.489  15.912  0.00  0.00    +0.000 NA
ATOM      3  C   UNL     1      15.831  13.209  15.883  0.00  0.00    +0.000 C 
ATOM      4  C   UNL     1      15.636  13.964  13.438  0.00  0.00    +0.000 C 
ATOM      5  C   UNL     1      16.256  15.294  13.880  0.00  0.00    +0.000 C 
ATOM      6  C   UNL     1      14.119  13.992  13.648  0.00  0.00    +0.000 C 
ATOM      7  C   UNL     1      15.828  15.607  15.324  0.00  0.00    +0.000 C 
ATOM      8  C   UNL     1      13.807  14.376  15.105  0.00  0.00    +0.000 C 
ATOM      9  C   UNL     1      16.164  12.925  14.410  0.00  0.00    +0.000 C 
ENDROOT
BRANCH   3  10
ATOM     10  C   UNL     1      15.020  12.034  16.457  0.00  0.00    +0.000 C 
BRANCH  10  11
ATOM     11  O   UNL     1      14.905  12.221  17.851  0.00  0.00    +0.000 OA
ATOM     12  H   UNL     1      14.060  11.832  18.133  0.00  0.00    +0.000 HD
ENDBRANCH  10  11
ENDBRANCH   3  10
BRANCH   3  13
ATOM     13  C   UNL     1      17.139  13.323  16.687  0.00  0.00    +0.000 C 
BRANCH  13  14
ATOM     14  O   UNL     1      17.669  12.025  16.847  0.00  0.00    +0.000 OA
ATOM     15  H   UNL     1      18.447  12.091  17.427  0.00  0.00    +0.000 HD
ENDBRANCH  13  14
ENDBRANCH   3  13
TORSDOF 4
ENDMDL
MODEL 8
REMARK VINA RESULT:     0.000      8.860     10.332
REMARK INTER + INTRA:          -0.519
REMARK INTER:                   0.000
REMARK INTRA:                  -0.519
REMARK UNBOUND:                -0.519
REMARK  Name = 322968
REMARK  4 active torsions:
REMARK  status: ('A' for Active; 'I' for Inactive)
REMARK    1  A    between atoms: O_2  and  C_12
REMARK    2  A    between atoms: O_3  and  C_13
REMARK    3  A    between atoms: C_5  and  C_12
REMARK    4  A    between atoms: C_5  and  C_13
REMARK                            x       y       z     vdW  Elec       q    Type
REMARK                         _______ _______ _______ _____ _____    ______ ____
ROOT
ATOM      1  O   UNL     1      17.188  20.154  14.386  0.00  0.00    +0.000 OA
ATOM      2  N   UNL     1      19.337  21.058  11.626  0.00  0.00    +0.000 NA
ATOM      3  C   UNL     1      18.411  21.464  12.734  0.00  0.00    +0.000 C 
ATOM      4  C   UNL     1      18.542  18.902  12.834  0.00  0.00    +0.000 C 
ATOM      5  C   UNL     1      20.062  19.061  12.937  0.00  0.00    +0.000 C 
ATOM      6  C   UNL     1      18.110  18.901  11.364  0.00  0.00    +0.000 C 
ATOM      7  C   UNL     1      20.506  20.308  12.151  0.00  0.00    +0.000 C 
ATOM      8  C   UNL     1      18.658  20.156  10.663  0.00  0.00    +0.000 C 
ATOM      9  C   UNL     1      17.958  20.170  13.430  0.00  0.00    +0.000 C 
ENDROOT
BRANCH   3  10
ATOM     10  C   UNL     1      17.177  22.212  12.200  0.00  0.00    +0.000 C 
BRANCH  10  11
ATOM     11  O   UNL     1      17.597  23.484  11.753  0.00  0.00    +0.000 OA
ATOM     12  H   UNL     1      18.543  23.423  11.538  0.00  0.00    +0.000 HD
ENDBRANCH  10  11
ENDBRANCH   3  10
BRANCH   3  13
ATOM     13  C   UNL     1      19.113  22.372  13.760  0.00  0.00    +0.000 C 
BRANCH  13  14
ATOM     14  O   UNL     1      18.125  22.929  14.600  0.00  0.00    +0.000 OA
ATOM     15  H   UNL     1      17.268  22.547  14.344  0.00  0.00    +0.000 HD
ENDBRANCH  13  14
ENDBRANCH   3  13
TORSDOF 4
ENDMDL
MODEL 9
REMARK VINA RESULT:     0.000      6.128      7.411
REMARK INTER + INTRA:          -0.519
REMARK INTER:                   0.000
REMARK INTRA:                  -0.519
REMARK UNBOUND:                -0.519
REMARK  Name = 322968
REMARK  4 active torsions:
REMARK  status: ('A' for Active; 'I' for Inactive)
REMARK    1  A    between atoms: O_2  and  C_12
REMARK    2  A    between atoms: O_3  and  C_13
REMARK    3  A    between atoms: C_5  and  C_12
REMARK    4  A    between atoms: C_5  and  C_13
REMARK                            x       y       z     vdW  Elec       q    Type
REMARK                         _______ _______ _______ _____ _____    ______ ____
ROOT
ATOM      1  O   UNL     1      16.568  18.415  13.605  0.00  0.00    +0.000 OA
ATOM      2  N   UNL     1      17.107  18.102  10.045  0.00  0.00    +0.000 NA
ATOM      3  C   UNL     1      17.656  18.305  11.426  0.00  0.00    +0.000 C 
ATOM      4  C   UNL     1      15.117  18.062  11.712  0.00  0.00    +0.000 C 
ATOM      5  C   UNL     1      15.239  16.728  10.970  0.00  0.00    +0.000 C 
ATOM      6  C   UNL     1      14.973  19.212  10.711  0.00  0.00    +0.000 C 
ATOM      7  C   UNL     1      16.380  16.811   9.941  0.00  0.00    +0.000 C 
ATOM      8  C   UNL     1      16.128  19.163   9.697  0.00  0.00    +0.000 C 
ATOM      9  C   UNL     1      16.458  18.276  12.389  0.00  0.00    +0.000 C 
ENDROOT
BRANCH   3  10
ATOM     10  C   UNL     1      18.382  19.655  11.558  0.00  0.00    +0.000 C 
BRANCH  10  11
ATOM     11  O   UNL     1      19.585  19.578  10.824  0.00  0.00    +0.000 OA
ATOM     12  H   UNL     1      19.670  20.399  10.309  0.00  0.00    +0.000 HD
ENDBRANCH  10  11
ENDBRANCH   3  10
BRANCH   3  13
ATOM     13  C   UNL     1      18.647  17.192  11.815  0.00  0.00    +0.000 C 
BRANCH  13  14
ATOM     14  O   UNL     1      19.320  17.595  12.988  0.00  0.00    +0.000 OA
ATOM     15  H   UNL     1      19.901  16.865  13.263  0.00  0.00    +0.000 HD
ENDBRANCH  13  14
ENDBRANCH   3  13
TORSDOF 4
ENDMDL
