REMARK  Name = 322968
REMARK  4 active torsions:
REMARK  status: ('A' for Active; 'I' for Inactive)
REMARK    1  A    between atoms: O_2  and  C_12
REMARK    2  A    between atoms: O_3  and  C_13
REMARK    3  A    between atoms: C_5  and  C_12
REMARK    4  A    between atoms: C_5  and  C_13
REMARK                            x       y       z     vdW  Elec       q    Type
REMARK                         _______ _______ _______ _____ _____    ______ ____
ROOT
ATOM      1  O   UNL     1       0.380  -1.936   1.176  0.00  0.00    +0.000 OA
ATOM      2  N   UNL     1      -0.386   1.080  -0.661  0.00  0.00    +0.000 NA
ATOM      3  C   UNL     1       0.627   0.138  -0.080  0.00  0.00    +0.000 C 
ATOM      4  C   UNL     1      -1.667  -0.856   0.501  0.00  0.00    +0.000 C 
ATOM      5  C   UNL     1      -1.980  -0.812  -0.998  0.00  0.00    +0.000 C 
ATOM      6  C   UNL     1      -2.000   0.491   1.150  0.00  0.00    +0.000 C 
ATOM      7  C   UNL     1      -1.262   0.388  -1.640  0.00  0.00    +0.000 C 
ATOM      8  C   UNL     1      -1.281   1.621   0.393  0.00  0.00    +0.000 C 
ATOM      9  C   UNL     1      -0.159  -0.995   0.599  0.00  0.00    +0.000 C 
ENDROOT
BRANCH   3  10
ATOM     10  C   UNL     1       1.519   0.834   0.963  0.00  0.00    +0.000 C 
BRANCH  10  11
ATOM     11  O   UNL     1       2.236   1.860   0.310  0.00  0.00    +0.000 OA
ATOM     12  H   UNL     1       1.588   2.484  -0.059  0.00  0.00    +0.000 HD
ENDBRANCH  10  11
ENDBRANCH   3  10
BRANCH   3  13
ATOM     13  C   UNL     1       1.540  -0.458  -1.167  0.00  0.00    +0.000 C 
BRANCH  13  14
ATOM     14  O   UNL     1       2.433  -1.356  -0.544  0.00  0.00    +0.000 OA
ATOM     15  H   UNL     1       3.213  -0.850  -0.259  0.00  0.00    +0.000 HD
ENDBRANCH  13  14
ENDBRANCH   3  13
TORSDOF 4
